6
Lattice="31.15701636 0.0 0.0 0.0 30.72457377 0.0 0.0 0.0 31.00550336" Properties=species:S:1:pos:R:3 Generated=T TMD=T structure,=T Energy:=T -2.722448=T eV=T pbc="F F F"
Te      15.23489677      15.35885135      14.85902910
Te      15.92314040      15.53247895      16.28920278
Te      16.23186821      15.09839178      15.30178275
Te      14.92976256      15.79655376      15.84505197
Mo      15.86279539      16.14894663      15.34870756
Mo      15.29765426      14.74086609      15.79982585
