6
Lattice="31.15701636 0.0 0.0 0.0 30.72457377 0.0 0.0 0.0 31.00550336" Properties=species:S:1:pos:R:3 Generated=T TMD=T structure,=T Energy:=T -2.722448=T eV=T pbc="F F F"
Te      14.90341429      16.40570929      12.85492064
Te      18.31354531      16.34855388      17.31205988
Te      16.76885713      16.38942757      14.80680638
Te      12.83217320      13.43369095      17.28351470
Mo      14.78708492      16.76568978      17.61849898
Mo      15.87504274      13.33301710      13.56779943
