4
Lattice="6.37465689 0.0 0.0 0.0 6.593531595 0.0 0.0 0.0 31.26374739" Properties=species:S:1:pos:R:3 Generated=T TMD=T structure,=T Energy:=T 3.458282=T eV=T pbc="T T F"
Cr       2.59206533       3.07092611      16.26374739
Cu       3.59891992       3.91684985      15.76050020
Se       3.14399829       2.81587851      15.00000000
Se       3.78259156       2.67668174      16.16522154
