4
Lattice="7.2615267249999995 0.0 0.0 0.0 9.396491939999997 0.0 0.0 0.0 33.19793573" Properties=species:S:1:pos:R:3:magmoms:R:1:forces:R:3 Generated=T TMD=T structure,=T Energy:=T 3.458282=T eV=T energy=-15.288124081298616 free_energy=-15.384702974605105 dipole="0.10023602567855752 0.6288166015292983 -0.01641221688801239" magmom=0.0 pbc="T T F"
Cr       3.85961153       4.23655510      16.68030139       0.00000000      -0.00377461      -0.43562047      -0.27864220
Cu       3.96543456       6.50930315      16.83126449       0.00000000       0.01136892      -0.10947772       0.02043327
Se       2.64087984       3.61118168      15.00000000       0.00000000       0.43098245       0.15402672       0.67268931
Se       4.62064688       2.88718879      18.19793573       0.00000000      -0.32135774       0.37087556      -0.44418659
