13
Generated by CMD-ECS (energy=-21.31 eV)
C       0.346677     -2.447138     -2.935396
N       0.379444      1.332806     -0.306694
C       0.341880     -0.962700     -1.626442
O       0.345544     -0.114452     -1.236551
N       0.208947     -2.544038     -1.616948
C       0.480388      0.832763     -0.157314
C       0.348997     -1.626014     -2.786699
O       0.268679     -2.759628     -3.077818
O       0.385956     -0.737500     -1.332669
H       0.518515     -0.590994     -1.362797
H       0.242827      0.855456      1.757357
H      -1.213598     -9.276269      2.026616
H       3.099340     -0.724209     -9.085135
