15
Generated by CMD-ECS (energy=-67.24 eV)
C       1.894115     -3.240987     -0.098336
C      -0.577980     -0.240655      0.477456
O       0.336451      0.880835      0.018932
C       0.327555      0.082072      0.618994
C      -0.346331      0.323556     -0.383184
C       0.174746     -1.133628      0.914618
O       1.205936     -0.517792     -2.058085
C       1.699735     -2.063528     -1.344492
O       0.704438     -1.020458     -1.844851
H       1.250557     -3.560994     -3.165715
H       1.759758     -2.623866      2.350576
H       2.107035     -1.925325      2.538750
H      -0.082424     -1.992049     -3.840174
H      -2.519142      2.018428     -1.083812
H       0.970618     -1.167043      2.918943
