19
Generated by CMD-ECS (energy=240.59 eV)
C       0.494470     -0.407626      1.810483
C       2.347893     -0.260965      0.456060
C       1.097218      0.282331      1.093946
C       1.852470      0.119623      0.188538
O       0.822864     -0.188171      0.980482
C       1.451330     -0.074929      0.509748
O       2.208341      0.166149      2.258230
C       0.992051      1.426264     -0.632705
C       1.523392      0.242918      0.918214
H       0.584851      1.582493      0.453704
H       1.575729     -0.218185      1.189644
H       1.406402     -0.587910      1.504408
H       1.479570     -4.252988      4.024876
H     -10.029550     -4.337431     -0.361257
H       1.602134     -0.502737      0.979806
H       3.801002      1.746805     -6.912176
H       2.805874     -0.548275      0.503555
H       1.556652      0.312469      1.043020
H       1.659492     -8.072108      1.876164
