9
Generated by CMD-ECS (energy=-60.20 eV)
O       1.416680      1.851112     -0.001872
C      -0.714946      0.528462      0.011277
C       0.872761      1.902032      0.003421
C       4.314696      3.354039     -0.020868
C       4.069648      3.238015     -0.019180
C       2.580050      2.232909     -0.010660
C       4.249889      3.346314     -0.020632
N       6.609385      5.870062     -0.029594
H      -7.716321     -5.763055      0.044117
