16
Generated by CMD-ECS (energy=-109.90 eV)
N       1.360786     -0.486219     -2.108527
C      -1.677617      1.039305      0.116030
C       0.285021     -0.333606     -0.797417
N      -0.891512     -0.388547     -0.797230
C       2.746976      0.159394     -2.712714
O       0.104521      0.674667     -1.148770
C       0.559248     -0.750912     -1.627021
O      -0.608530      0.074500      0.330359
H       0.260268     -0.481989      1.472191
H      -0.373750     -2.455765     -0.803157
H      -6.629700     -4.100249      0.367757
H      -2.259965     -1.581543      4.004309
H       7.010618      1.742572      0.416896
H       2.909832     -1.237901     -3.253048
H       3.042745     -1.287260     -4.601405
H       0.795894      1.982674     -2.064458
