12
Generated by CMD-ECS (energy=-50.69 eV)
O       0.133803     -1.269855     -0.862717
C       0.079195      0.633904      0.135591
C       0.191720     -2.797469     -1.820165
C      -0.042312     -0.086143      1.317340
O       0.049098     -1.147403      0.093693
C       0.039484     -0.714877      0.287388
N       0.055380     -1.838787     -0.122395
H       0.070662      4.926808      1.133407
H       0.328924     -2.201149     -3.200050
H       0.160641     -2.291165     -1.372594
H       0.161895      0.213503     -0.858101
H      -0.277535    -10.946679      1.623616
