21
Generated by CMD-ECS (energy=-23.70 eV)
C      -0.509215     -0.602488      0.826837
C      -1.193131     -0.252702      0.875200
C      -0.416153      0.576738     -0.817776
O      -1.282929     -0.737063      0.626504
C      -3.974092     -1.232478      0.901737
C      -0.430121     -0.136159     -0.625823
O       1.106269     -0.063525     -1.029317
C      -1.935715     -0.977187      1.238579
C      -0.810276     -0.231057      0.293673
H      -0.893205     -1.083070     -0.647378
H       3.466869      6.737735      1.637586
H      -0.842993     -0.361067      3.034187
H      -0.149643     -1.224143      0.037130
H       2.254612     -6.301732     -3.233351
H      -0.429634     -0.238774      1.700752
H      -6.533253     -1.262405      2.631148
H      -0.844338     -0.082219      1.284985
H       1.687617     -2.798523      1.396768
H     -10.656614     -2.297573      2.378316
H       1.360708     -1.603096     -6.212753
H      -0.775846      0.598089     -1.621547
