23
Generated by CMD-ECS (energy=516.10 eV)
C       1.154262     -0.462094      0.018269
C       1.324102     -0.872156     -0.235071
C       1.077389     -0.719068     -0.148742
C       0.779825     -0.099109     -0.001652
C       1.180676      0.119843      0.816097
C       0.802777     -0.326884     -0.209338
C       1.345741      0.153265      0.953891
C       1.227491     -0.860979     -0.043588
C       1.226847     -1.134197     -0.446727
H       2.180108     -6.190598     -0.314114
H      -0.125585      0.170740     -0.532194
H       8.096582      0.003126      4.521648
H       1.111583     -0.375867      0.107737
H       0.174353      2.490317      1.174913
H       1.118128      1.814419      2.138974
H      -0.148177      0.294936     -2.177480
H      -0.059569     -1.365265     -0.121792
H       1.748629     -1.295879      0.568511
H       1.191427      0.397865      0.707516
H       0.904561     -0.617895      0.420631
H       9.357821     -8.244913     -1.650761
H       0.706870     -1.218950     -0.827480
H      -1.772651     -7.258155      6.984640
