19
Generated by CMD-ECS (energy=39.91 eV)
N      -1.256721      1.341398     -0.156473
C       0.991325      1.667295      0.688427
C      -2.573681      1.918640     -0.854405
C      -2.623975      0.971111     -1.021562
N      -0.190073      0.956113      0.451526
C      -1.742556      2.381003     -0.750951
C      -1.722896      1.115060     -0.720750
C      -0.255778      2.366567     -0.217773
C      -0.915530     -0.842077      0.178876
H       0.405519      0.610798      0.897458
H      11.226280     -2.892105     -0.648362
H       0.359890      1.905318      0.068230
H      -2.209727      2.304235     -3.619078
H      -1.487483      5.442698      1.054767
H       4.359805      2.536171      4.417731
H      -0.190637      1.612904     -0.043654
H      -1.522588      2.961761     -0.370754
H       1.163940     -1.532071      0.254238
H      -4.523613      5.346813      1.695258
