15
Generated by CMD-ECS (energy=-60.04 eV)
C      -0.357157     -0.588995      1.565105
C       0.048892      0.700598     -0.256029
O      -1.339060     -1.392823     -0.354505
C       1.204645     -0.994508     -0.987806
C      -0.984146     -1.760970      0.572475
C      -1.292582     -4.323826     -0.535528
C       0.153081      0.152662     -0.134351
N      -0.414545     -1.984691     -0.813674
H       0.693233     -2.991757      1.699906
H       0.418553      1.401874     -2.361313
H       0.193759     -2.681959      1.265762
H       0.923469      0.959009     -0.292348
H      -1.540288      1.417700     -2.395864
H       2.131487     -4.920377     -4.572553
H       2.409597      0.585723     -1.615097
