30
Generated TMD structure, Energy: 690.446063 eV
Mo      -0.11083371     -0.08476012     -0.15155053
Mo      -0.01617505      0.03708070      0.09365016
Se       0.14516644     -0.00887812      0.24700390
Se       0.23938323     -0.38447193      0.28631003
Se      -0.23394738     -0.58291875      0.01939432
Se      -0.04372780      0.14146165      0.07402939
Cl       0.12565180      0.10103590      0.25344484
Cl       0.18292615      0.13845379      0.04459685
Cl      -0.15896384      0.04372662      0.20022988
Cl       0.08691042     -0.07513233      0.02111392
Cl       0.20788769     -0.11333883     -0.16722465
Cl       0.08100579     -0.07194822      0.13693931
Cl       0.18474564      0.17962402      0.20571513
Cl       0.32750442     -0.19794335      0.04345400
Cl       0.01741656      0.02583018     -0.08536138
Cl      -0.25892054     -0.01850513      0.22283009
Cl      -0.24200385     -0.18004192     -0.01927829
Cl       0.18391114      0.20977279      0.19411718
Cl      -0.17624948      0.17544612      0.11199256
Cl      -0.01688119     -0.05169436      0.41907303
Cl       0.30132866     -0.01446573     -0.17092120
Cl       0.13471282      0.04012021      0.29160554
Cl      -0.15277612     -0.00592244      0.27141985
Cl      -0.10964126     -0.00963757      0.20532536
Cl      -0.29135663     -0.03536468     -0.01574379
Cl       0.27968268     -0.06440958     -0.10958816
Cl       0.16391159      0.08750583      0.04227330
Cl       0.18330843     -0.39186205     -0.10759982
Cl       0.06365240     -0.26167403      0.28144304
Cl       0.12715881      0.09705088     -0.06059622
