12
Generated TMD structure, Energy: 246.715595 eV
Re      -0.30606598     -0.32952675     -0.66909884
Re       0.44543807      0.21081257     -0.18621563
Re       0.26656780      0.59070714     -0.35579483
Re      -0.47831447      0.53346088      0.28613846
Se      -0.21736492     -0.05524589     -0.24445847
Se      -0.12066282      0.00227168     -0.14572030
Se      -0.09934232      0.14370971      0.03923571
Se      -0.40392973      0.19117916     -0.02164091
Se       0.08796665      0.20711579     -0.07561053
Se      -0.08319155      0.07533171     -0.36309200
Se       0.17874219      0.24851854     -0.25279100
Se      -0.35584060      0.20703200     -0.15718504
