4
Generated TMD structure, Energy: 3.926717 eV
Cr      -0.83692676     -0.17497189     -0.46193982
Ag      -0.36302649      0.72101643      0.08674939
Se      -0.17015972     -0.67045457      0.20964138
Se       0.37257353      0.00328807     -0.85740110
