12
Generated TMD structure, Energy: 94.088224 eV
Nb      -0.36384496     -0.56701722     -0.14645670
Nb      -0.45804009      0.31986609      0.57507835
Nb       0.25294969      0.18787622      0.05042890
Nb      -0.30317287      0.23094826     -0.41965930
Se      -0.37898602     -0.21337569     -0.08764026
Se       0.25109298      0.14429221     -0.31639563
Se       0.06510318      0.29678794      0.16076292
Se      -0.41684947      0.18876834     -0.24377283
Se       0.08120205      0.35747530     -0.41029181
Se       0.03864232     -0.02447723      0.26807748
Se      -0.01272943     -0.15937306     -0.17368997
Se      -0.33013596      0.37906344     -0.07581750
