3
Generated TMD structure, Energy: 6.177368 eV
Nb      -0.68486851     -0.47224290      0.55492501
Se       0.69605315     -0.19870251      0.68994734
Se      -0.21555774      0.85878050      0.46479125
