18
Generated TMD structure, Energy: -12.088293 eV
Ta      -0.20533225     -0.43917431     -0.23031455
Ta      -0.19346981     -0.28335691     -0.34638632
Te       0.25651101      0.15016514     -0.10173439
Te       0.24321372      0.16627213      0.01853346
Te       0.31894994      0.12909379     -0.08068762
Te       0.25245767      0.15062517     -0.08387686
Br      -0.26022897      0.29523607     -0.16706974
Br      -0.01017676     -0.00091085      0.24669369
Br      -0.29235673      0.32104639      0.01231586
Br       0.03407088      0.01693356      0.22325828
Br       0.00883252      0.24801945     -0.43903148
Br      -0.06766783     -0.28299248     -0.28245416
Br       0.13617717      0.23168598     -0.33373663
Br      -0.37429148      0.02607295     -0.28651754
Br      -0.26394315      0.24813446      0.02807365
Br       0.25064625      0.20457530     -0.35326896
Br      -0.28634329      0.28600271     -0.03962668
Br       0.31266610     -0.25609970     -0.26609719
