3
Generated TMD structure, Energy: -0.105784 eV
Ta      -0.91077821      0.22548278      0.34589099
Se      -0.01808140      0.81513492     -0.57898888
Se       0.41249985      0.53358464      0.73833008
