4
Generated TMD structure, Energy: 3.695410 eV
Cr      -0.47759211      0.18872490     -0.85806861
Cu       0.16444914      0.66978064      0.05800025
Se      -0.83336537      0.20903918      0.50968044
Se       0.22442017      0.68708037      0.02408494
