15
Generated TMD structure, Energy: 74.993669 eV
Ta       0.03002068     -0.22830905     -0.59859926
Ta       0.26067721      0.34964200     -0.05272027
Ta       0.38857601     -0.18296299      0.03894164
Ta       0.39083451     -0.18060054      0.03863419
Ta       0.24182517      0.34151496     -0.04952631
Se      -0.09922723      0.20482802      0.48273140
Se      -0.39073248      0.10300451      0.06338259
Se      -0.40022435     -0.23763604      0.10780400
Se       0.00175997     -0.13299480      0.12308000
Se      -0.39637518      0.29907686     -0.00915271
Se      -0.12306497     -0.12440533     -0.16913276
Se      -0.05468621      0.31084960     -0.41224293
Se       0.02800394     -0.48553183      0.24351454
Se      -0.18825121     -0.19037888     -0.32573820
Se       0.18641801      0.20649847      0.07471041
