8
Generated TMD structure, Energy: 16.816256 eV
Nb      -0.23159539      0.76578704      0.43749496
Nb      -0.25834124     -0.26728010      0.38074070
Cu      -0.11560389      0.17883278     -0.70365954
Cu      -0.27586209     -0.23192439      0.32244048
Te      -0.33967814      0.16426696     -0.13235411
Te      -0.30502103      0.23099142     -0.13967434
Te      -0.68556792     -0.37280533     -0.11764032
Te      -0.33427053      0.19244995     -0.11689433
