9
Generated TMD structure, Energy: 86.626102 eV
Mo       0.15746476     -0.22466701      0.23263534
Mo       0.21384147     -0.24147874      0.23596913
Mo       0.23446646     -0.27150936      0.27151586
Se       0.26317146     -0.51130642     -0.47922184
Se       0.17033511     -0.26712338      0.34053371
Se      -0.82382549     -0.45692416      0.26851136
Se       0.21662966     -0.16724255      0.34623072
Se       0.22415661     -0.08407869      0.24357861
Se      -0.01912707     -0.49080269     -0.46856922
