3
Generated TMD structure, Energy: -0.849324 eV
Te      -0.05461289     -0.52212260      0.85112010
Te      -0.38105415     -0.77698315     -0.50109372
W        0.92293833     -0.35168902     -0.15652369
