3
Generated TMD structure, Energy: -0.947683 eV
Nb      -0.12861386     -0.74090767      0.65917699
Te       0.72504631      0.38323775      0.57222082
Te      -0.67658430      0.55152937      0.48790268
