12
Generated TMD structure, Energy: 295.313112 eV
Ta      -0.56556911     -0.38305717      0.08181129
Ta      -0.53424405     -0.37710715      0.04916357
Ta      -0.38388284      0.52611888      0.17951882
Ta      -0.36342362      0.52261830      0.14644354
Se       0.05815450      0.11794994      0.43672607
Se       0.18187940      0.08155592      0.36433020
Se       0.06257495     -0.12425086      0.23876333
Se       0.14072125      0.08518040      0.02214495
Se       0.14502701     -0.28202781      0.14665308
Se      -0.02826234      0.17915337     -0.68964374
Se       0.14679066     -0.06951155      0.20719503
Se       0.10822600      0.03743566      0.12730771
