12
Generated TMD structure, Energy: 116.249100 eV
Mo      -0.22657899      0.10083844      0.09004040
Mo      -0.24281650      0.08633993      0.13950771
Mo      -0.31675759     -0.06311569     -0.87686797
Mo      -0.22921641      0.05227597      0.10281534
Se      -0.26675866      0.66418425      0.02161469
Se       0.40544001      0.29031363      0.02289128
Se      -0.25835373     -0.16396710      0.27830051
Se      -0.00362926      0.46296397     -0.04531377
Se      -0.00783021      0.44353597     -0.04906183
Se      -0.34773307     -0.09829546     -0.02413339
Se      -0.27079193      0.00430188     -0.06752921
Se      -0.49011948     -0.05111187      0.32390818
