3
Generated TMD structure, Energy: -1.810158 eV
V       -0.59726020      0.14035927      0.78967052
Te       0.75053726     -0.24934399      0.61198153
Te       0.28279688      0.95818936      0.04357838
