6
Generated TMD structure, Energy: 13.312934 eV
V       -0.37887108      0.08378201     -0.09464589
V       -0.37147783     -0.78415023      0.11171177
S        0.42152671     -0.12065377     -0.82715042
S        0.59382811      0.08425143      0.53621364
S       -0.30508261      0.40136587     -0.05547983
S       -0.30833251      0.44197148     -0.06149591
