4
Generated TMD structure, Energy: 4.490185 eV
Cr      -0.23877009      0.47047368     -0.84770965
Ag      -0.42916112     -0.51329287     -0.21029491
Se      -0.33913802     -0.60295801     -0.19393577
Se       0.80236836     -0.38939258     -0.44671390
