6
Generated TMD structure, Energy: -1.051305 eV
Te      -0.25468274     -0.72879195     -0.50214378
Te       0.09385478      0.53217645     -0.37822823
Te       0.13005056      0.01232778     -0.48039040
Te       0.29579097      0.13648751     -0.57945146
Mo      -0.34577435     -0.13327532      0.04947316
Mo       0.83807078     -0.38614427      0.18923136
