3
Generated TMD structure, Energy: -0.769968 eV
Ta      -0.93639235      0.24136792      0.25477617
S        0.34949234      0.57510888      0.73966539
S        0.03200746      0.78165933     -0.62288379
