3
Generated TMD structure, Energy: 6.948476 eV
V       -0.99902632     -0.04377610      0.00548269
S        0.03017443     -0.76864517     -0.63896330
S        0.03218557     -0.63817572      0.76921768
