6
Generated TMD structure, Energy: 10.510294 eV
W       -0.54402327      0.43791542      0.06255077
W       -0.30248058     -0.39561812     -0.44159853
S        0.31008985      0.53766915     -0.75731934
S        0.44294521      0.18147194      0.08185170
S       -0.23164140     -0.38814354     -0.46956393
S       -0.51626570      0.42313212      0.01885682
