3
Generated TMD structure, Energy: 3.189443 eV
Mo      -0.86551831      0.37749480      0.32920468
Se       0.21752550      0.87533128     -0.43183076
Se       0.45117702      0.30214702      0.83973000
