3
Generated TMD structure, Energy: 6.177368 eV
Nb      -0.28589661     -0.01522982      0.95813944
Se       0.95707787      0.04512150      0.28629707
Se      -0.04759294      0.99886541      0.00167604
