12
Generated TMD structure, Energy: 28.896110 eV
Mo      -0.05993395     -0.04445505     -0.28385543
Mo      -0.54937173     -0.52113102      0.27638118
Mo      -0.12727164     -0.10240681     -0.31702478
Mo      -0.03494430     -0.07136370     -0.28575374
S        0.32736574     -0.09458802     -0.30322787
S        0.54264859     -0.59656789     -0.01349264
S        0.10413207      0.12954507      0.00554614
S       -0.13462158     -0.21016919      0.06442972
S       -0.44511421     -0.13278800     -0.19802773
S       -0.04104426     -0.40412386     -0.31950505
S       -0.08527752      0.04383562     -0.60787500
S       -0.19873003      0.31969176     -0.23185776
