24
Generated TMD structure, Energy: 183.626150 eV
Re       0.25925715     -0.13008428      0.13781894
Re      -0.02343802     -0.25243605      0.18692320
Re       0.10724240     -0.06388928     -0.23944544
Re      -0.08111100     -0.23585619      0.24153356
Re       0.03030856      0.01297808     -0.13242269
Re       0.21984047     -0.42975352      0.04048858
Re      -0.01844940     -0.20383165      0.24086147
Re       0.03224009      0.09651575     -0.16835589
S        0.00086150     -0.00439346      0.14527355
S       -0.07558808     -0.01585212     -0.06168390
S        0.06598313     -0.14311854     -0.11068560
S        0.41108280      0.41767235      0.03623296
S        0.42356743     -0.08336006     -0.03635951
S       -0.04246209     -0.02341538     -0.18283864
S       -0.15225066     -0.20394720      0.31586017
S        0.41161022     -0.15576261      0.00402361
S        0.27702437     -0.04005208      0.16058915
S       -0.06262526      0.09080319      0.48242528
S       -0.06828908      0.53832988      0.36193399
S        0.05374577      0.09675607      0.08998552
S        0.13484122      0.11914746     -0.10651052
S       -0.17648493     -0.03880218      0.20234207
S       -0.05715033     -0.16628165      0.11458435
S        0.41212107      0.05482839      0.29802309
