3
Generated TMD structure, Energy: -0.769968 eV
Ta       0.54884776     -0.22588696      0.80482372
S       -0.01421161      0.96013663      0.27916964
S       -0.83580151     -0.16465947      0.52375862
