6
Generated TMD structure, Energy: 13.174573 eV
Cr      -0.63886988      0.22273582     -0.57811448
Cr      -0.04440236      0.13241028     -0.07972195
S        0.35178634      0.75151627      0.09758420
S       -0.26271594      0.21408113      0.69198982
S        0.61847187      0.01390936     -0.39087076
S        0.12080130     -0.56749922      0.13518697
