12
Generated TMD structure, Energy: 85.924601 eV
Te      -0.08961165      0.02370817      0.22431859
Te      -0.38450091     -0.06379766     -0.21502629
Te      -0.21986125      0.24472961     -0.09096913
Te      -0.13998993      0.27981159     -0.10923281
Te      -0.04379455      0.15516101     -0.20521909
Te      -0.19002386      0.22800872     -0.15769937
Te      -0.14603626      0.18540323     -0.02587128
Te      -0.17308380      0.30141661     -0.12578277
W       -0.24694229      0.32547927     -0.28096262
W       -0.34132957      0.15614869     -0.08897339
W       -0.02132774     -0.56787097     -0.74896521
W        0.71340016      0.45066043     -0.38981781
