9
Generated TMD structure, Energy: 46.519500 eV
W       -0.11957432      0.24421885      0.04545831
W       -0.08385625     -0.18488559      0.15938473
W        0.09341569     -0.01269581     -0.23607189
Se      -0.15418317     -0.67188301     -0.55599699
Se       0.24374453      0.04983889      0.20044791
Se      -0.17407980      0.66795656     -0.57433239
Se       0.38805807      0.07425253      0.08057090
Se      -0.78366049      0.01955679      0.39372141
Se       0.30289134      0.00638117      0.27590248
