18
Generated TMD structure, Energy: 6.318990 eV
Ta       0.08405586      0.00596615     -0.16543181
Ta       0.07572928     -0.04142331     -0.19833802
Te       0.35540355      0.17418194      0.10593039
Te       0.41106046     -0.08513609     -0.16625704
Te       0.30473402      0.00220212     -0.09391378
Te       0.40800258      0.27912749     -0.00796208
Br      -0.23366125     -0.17468747      0.04385037
Br      -0.09837432      0.29988642      0.20415647
Br      -0.40006503      0.10856013     -0.22839570
Br       0.15569837     -0.10426153     -0.41364850
Br      -0.40875964      0.08064032     -0.22147992
Br      -0.06107570      0.47424919      0.04513291
Br      -0.08443044      0.37602504     -0.32033359
Br      -0.01103072     -0.31320283     -0.16808679
Br      -0.06946550     -0.14765633      0.13265794
Br       0.02826096     -0.05522845     -0.53199236
Br      -0.01011333      0.30044226      0.21167506
Br      -0.01509993      0.39193946     -0.30215668
