4
Generated TMD structure, Energy: 6.410177 eV
V       -0.61232279      0.07141650      0.57220558
Cr      -0.55269223      0.26749990     -0.77346498
Se       0.45176949      0.81134718      0.03290461
Se       0.33984765     -0.51483904     -0.27064735
