24
Generated TMD structure, Energy: 109.342701 eV
Mo      -0.13290401      0.31015680      0.09255753
Mo       0.05402854     -0.26479707     -0.07084952
Mo       0.14641862     -0.05209714      0.12948254
Mo       0.18551441      0.09608018      0.31226696
S       -0.09442363      0.00642686      0.19357404
S       -0.27078369      0.01506604     -0.05305157
S       -0.40423772     -0.11606313      0.19621714
S        0.05472968     -0.02259160      0.30889453
S        0.04980856     -0.13565924     -0.21821825
S       -0.29843212     -0.46824637      0.01790816
S       -0.44808683     -0.13001801      0.12427840
S        0.13446075     -0.07758008      0.34951758
Cl       0.14920169     -0.07490013      0.35241926
Cl      -0.18097082     -0.17184025     -0.12092643
Cl      -0.25121435      0.09201092      0.06707095
Cl       0.02929274     -0.48379785      0.06619752
Cl      -0.31191665      0.07444110     -0.04073620
Cl      -0.23239391      0.13987435      0.07201270
Cl      -0.11355341      0.00954259      0.17150766
Cl      -0.08207970     -0.00854332      0.31046331
Cl       0.01184171     -0.20752083      0.30084483
Cl      -0.02918043      0.26861020      0.35905102
Cl      -0.14610306      0.27633015     -0.00829599
Cl       0.22862569     -0.22890715      0.11199237
