3
Generated TMD structure, Energy: -0.769968 eV
Ta      -0.76909736     -0.55051998     -0.32467986
S        0.48173057     -0.16546633     -0.86055595
S        0.42002966     -0.81825952      0.39246202
