3
Generated TMD structure, Energy: -0.105784 eV
Ta      -0.72262208      0.02115866      0.69091942
Se       0.19028924      0.96700113      0.16940725
Se       0.66453543     -0.25389195      0.70280263
