12
Generated TMD structure, Energy: 21.486789 eV
Te      -0.24953102      0.17422952     -0.23277584
Te      -0.22008130      0.17313435      0.23369421
Te      -0.57782247     -0.17341783      0.05339426
Te      -0.29933107      0.10662688      0.27275469
Te      -0.58210141     -0.05627678      0.04575719
Te      -0.10842344     -0.25140847      0.06027278
Te      -0.27939558     -0.03816911     -0.08224232
Te      -0.09430688     -0.24047935      0.06455457
Mo      -0.13896720      0.22925000     -0.62142496
Mo       0.03516158     -0.59588504     -0.23263039
Mo      -0.08633654      0.40092858     -0.43096461
Mo       0.01627923      0.45187031      0.41386273
