6
Generated TMD structure, Energy: -0.231021 eV
Nb       0.08577258      0.86371819     -0.29786196
Nb      -0.66820782     -0.23409123     -0.18256290
S        0.39525917     -0.40971445     -0.75982775
S       -0.28486476     -0.03439060      0.09425452
S        0.48567671     -0.17246181      0.53075162
S       -0.26996622     -0.02001166      0.10014806
