8
Generated TMD structure, Energy: 10.921393 eV
Ta      -0.55687297      0.05650250     -0.53720695
Ta      -0.65946237      0.32015716      0.46683914
S        0.16713763      0.03906452     -0.09147434
S       -0.30256702      0.24844610      0.05173828
S       -0.06916853      0.16510416     -0.69053596
S        0.34488131      0.87446900     -0.00001411
N        0.08793816      0.13477159     -0.06233944
N        0.06371478      0.14469470     -0.04122370
