27
Generated TMD structure, Energy: 1195.631046 eV
Ta      -0.23920175     -0.10246230     -0.04729035
Ta      -0.01231109      0.11873087      0.22214476
Ta      -0.00606930     -0.06939638      0.17692216
Ta      -0.22353508     -0.11862535      0.33596387
Ta       0.04548203      0.20870764      0.53734428
Ta       0.51010446     -0.26365927      0.08981578
Ta      -0.20123231      0.23938640      0.16298677
Ta       0.22571853     -0.07101712      0.20444119
Ta      -0.23770244     -0.11926885     -0.07322881
Te      -0.09976619      0.19670224     -0.05890612
Te       0.07014968      0.13666397     -0.03475745
Te      -0.44297984      0.25699676     -0.12465884
Te      -0.00729539      0.09001914      0.12751694
Te      -0.30025532     -0.08103024     -0.02738798
Te      -0.15382313     -0.04095253      0.38676267
Te      -0.01151017     -0.03497137      0.18124343
Te       0.09073810      0.28652229      0.17449268
Te      -0.12263758      0.08214824      0.00142378
Te      -0.01831508     -0.08658028      0.01482461
Te      -0.15875022     -0.40384303      0.25142362
Te      -0.11086786      0.02509617      0.15085997
Te       0.13429388      0.32987457      0.19064310
Te       0.14044105      0.17740007      0.08202647
Te      -0.03475271     -0.16088960      0.15475667
Te      -0.21174621     -0.02347682      0.10430780
Te       0.09509500      0.44138564     -0.11412331
Te       0.05789126      0.06540003      0.08050434
