6
Generated TMD structure, Energy: 6.203068 eV
Mo      -0.88041507      0.21693950      0.29230267
Mo       0.09497826     -0.30862818      0.09351095
S        0.24348622      0.81776490     -0.23864585
S        0.22930195     -0.04309730      0.07086280
S        0.02820331     -0.41161946     -0.10290351
S       -0.32122903     -0.13288530     -0.91282657
