12
Generated TMD structure, Energy: 40.376585 eV
V       -0.32344072      0.29464643      0.12324139
V       -0.20234127      0.27079507     -0.42948816
V       -0.21395745      0.32285606     -0.26376599
V       -0.35173550      0.26406981      0.22596452
S        0.08675485     -0.32637906     -0.36839622
S       -0.26467059     -0.38483633      0.16387025
S       -0.21640986     -0.41011284     -0.28713671
S        0.38489943      0.32173784      0.17148606
S        0.38919791      0.16074612     -0.36628734
S        0.27487288      0.06769027      0.38342487
S        0.43040612     -0.12081907     -0.10038180
S        0.01054490     -0.30746710      0.33769405
