12
Generated TMD structure, Energy: 82.681644 eV
Cr       0.09126135     -0.38215718     -0.09237722
Cr       0.15851239     -0.34979005      0.00689137
Cr       0.11485240     -0.32879696     -0.04139830
Cr       0.10767520     -0.35797637     -0.07009252
S       -0.34497181      0.03150302      0.46569593
S       -0.42704558      0.20670838     -0.16848265
S        0.44277869      0.34748567      0.08622605
S        0.14515477      0.32361032     -0.42604288
S        0.10245310      0.13503789      0.51039721
S       -0.21879109      0.07534024     -0.52949175
S       -0.02917434      0.42966479      0.08115893
S       -0.60336265     -0.13279437      0.05596431
