6
Generated TMD structure, Energy: 4.529942 eV
V       -0.65725503     -0.10059246      0.62675143
V       -0.10093525      0.18109158     -0.10415126
S       -0.20160554      0.13980063     -0.47517642
S        0.45924389      0.72629377      0.38160626
S        0.51934971     -0.61697742      0.07887489
S       -0.19119109      0.17140302     -0.46765151
