4
Generated TMD structure, Energy: 3.458282 eV
Cr      -0.88350611      0.08648970      0.41633244
Cu       0.12334848      0.93241344     -0.08691475
Se      -0.33157315     -0.16855790     -0.84741495
Se       0.30702012     -0.30775467      0.31780659
