30
Generated TMD structure, Energy: 1118.957443 eV
Mo       0.07068178     -0.02983422      0.19348803
Mo       0.41456284      0.14081569     -0.21694633
Se       0.05421170     -0.12305418      0.36615925
Se      -0.00708212     -0.22989138      0.16625507
Se      -0.01896584     -0.21280139      0.19678563
Se      -0.12937765      0.00646416      0.25515798
Cl       0.38695096     -0.13971893     -0.02755946
Cl      -0.05509415     -0.02633901      0.12446550
Cl      -0.23351185     -0.11493948      0.04472666
Cl       0.03327934      0.08355195      0.31788095
Cl       0.03557451     -0.19537930      0.04684731
Cl       0.24304420     -0.28368207      0.01940481
Cl       0.15351827      0.20081885      0.18506488
Cl       0.22612141     -0.05545728      0.36480126
Cl       0.20594383      0.12256443      0.25560252
Cl      -0.40509431      0.06225352      0.19614081
Cl       0.17915464     -0.00728766     -0.06622869
Cl       0.07459578      0.22272758      0.09839119
Cl      -0.21064262     -0.20469486      0.03834721
Cl       0.08027405     -0.37047300     -0.21390260
Cl       0.06983634     -0.05306176      0.26482094
Cl       0.03243269     -0.31187229     -0.10847262
Cl       0.27239053      0.16488342      0.07435662
Cl       0.07143171     -0.18625826      0.19107657
Cl       0.03610249      0.25313148      0.13889614
Cl       0.01179543      0.00633471      0.18886810
Cl       0.01102218      0.04739349     -0.02202507
Cl       0.15389927     -0.29463321      0.09581372
Cl       0.07579523     -0.27207809     -0.02813603
Cl      -0.22001478     -0.16321390      0.07938099
