6
Generated TMD structure, Energy: 1.456994 eV
Nb      -0.37977007      0.00832527      0.58350270
Nb       0.81407634      0.05117321      0.33674310
S       -0.31527379     -0.07077550     -0.01477363
S       -0.28315144     -0.08021112      0.00016654
S       -0.05571654      0.94564997     -0.24730149
S        0.10187137     -0.30267991     -0.69624161
