3
Generated TMD structure, Energy: 6.948476 eV
V        0.70440394      0.70497888      0.08258246
S       -0.33455277      0.22714289      0.91459311
S        0.62601081     -0.67187118      0.39585298
