6
Generated TMD structure, Energy: 1.484855 eV
Te      -0.03774194     -0.46921413      0.13758539
Te       0.52696700     -0.44940609      0.32965674
Te      -0.02356970     -0.46123006      0.14391459
Te      -0.76763269     -0.31032502     -0.18796332
Mo      -0.33973532     -0.09914950      0.70079862
Mo       0.12508300     -0.50892716     -0.57029498
