6
Generated TMD structure, Energy: 15.278819 eV
Mo      -0.35734157      0.44629003     -0.09260551
Mo       0.39457656      0.09044602      0.17694916
Se       0.05367986     -0.35327054     -0.84180189
Se      -0.56430917     -0.57710148      0.40940884
Se       0.47862315      0.10285508      0.26741545
Se      -0.40768843      0.56940264     -0.11115830
