9
Generated TMD structure, Energy: 37.035670 eV
Te      -0.17303436     -0.23787736     -0.16270651
Te      -0.18468714     -0.34275200     -0.06377731
Te      -0.19383792     -0.22501398     -0.09890274
Te      -0.14599854     -0.39002670     -0.11130251
Te      -0.03480783     -0.27738978     -0.10267233
Te      -0.19416638     -0.32960662     -0.20107102
W       -0.78727773     -0.02897220      0.43291340
W       -0.19491719      0.13910826     -0.82955635
W       -0.42467628      0.64607058     -0.14401436
