12
Generated TMD structure, Energy: 304.235755 eV
Nb      -0.54964184      0.12344419      0.65624343
Nb      -0.43086344     -0.43476142     -0.59328336
Nb       0.23759158      0.18874744     -0.09937813
Nb      -0.40645060      0.62228483     -0.34421651
Se      -0.15511780      0.10419236     -0.08704055
Se      -0.24352715     -0.15496420     -0.01611664
Se      -0.27545036     -0.03584343     -0.00308036
Se      -0.00538161      0.18905203      0.07057250
Se       0.15170806     -0.08755618     -0.12882821
Se      -0.24114535      0.16812722     -0.12722750
Se       0.06585932      0.26398055     -0.15350093
Se       0.21406999      0.44200237     -0.14080679
