4
Generated TMD structure, Energy: 1.614108 eV
Ta      -0.77615368     -0.35251053     -0.13831307
In       0.35088603     -0.80330155      0.46913718
S       -0.34965326     -0.36781955     -0.17549698
S        0.39013723     -0.30846672     -0.85438903
