18
Generated TMD structure, Energy: 125.099420 eV
Ta       0.12060016     -0.12245498     -0.32101864
Ta      -0.13348789     -0.72550314      0.16143131
Te       0.07075922     -0.11560131      0.22237490
Te       0.55025831      0.12482561     -0.27918798
Te       0.03601247     -0.09784407     -0.45330399
Te       0.21411988     -0.34227824      0.05027925
Cl       0.29556336      0.12174531      0.34958109
Cl       0.27788102      0.16470865      0.29258449
Cl       0.12600164      0.00768625      0.00997680
Cl       0.11906020     -0.16802026     -0.16048544
Cl       0.19445982     -0.26084208      0.08939800
Cl       0.26688973      0.24569962     -0.01257792
Cl      -0.22412394     -0.04150111     -0.10735816
Cl      -0.08214536      0.04329216      0.29046088
Cl       0.28457705     -0.11312235      0.37302223
Cl       0.40121418     -0.25236453     -0.22821968
Cl      -0.10029768      0.15526195     -0.08054538
Cl       0.00577034     -0.01191834      0.00702311
