4
Lattice="31.19052623 0.0 0.0 0.0 31.24016811 0.0 0.0 0.0 31.26374739" Properties=species:S:1:pos:R:3 Generated=T TMD=T structure,=T Energy:=T 3.458282=T eV=T pbc="F F F"
Cr      14.37601880      15.34961704      16.68714383
Cu      16.29693178      16.96350043      15.72703095
Se      15.42901613      14.86302816      14.27612163
Se      16.64734707      14.59746362      16.49917271
