4
Lattice="31.19052623 0.0 0.0 0.0 31.24016811 0.0 0.0 0.0 31.26374739" Properties=species:S:1:pos:R:3:forces:R:3:charge:R:1 Generated=T TMD=T structure,=T Energy:=T 3.458282=T eV=T energy=-333.91837116842663 free_energy=-333.91837116842663 dipole="0.2910590912657545 1.8343133394629232 0.06524802034993424" pbc="F F F"
Cr      15.77529677      15.36890023      15.80029327       0.00606787       0.00554168       0.02908230       0.34512815
Cu      15.88111980      17.64164828      15.95125637       0.03627353       0.02772236       0.04808989       0.24022271
Se      14.55656508      14.74352681      14.11999188      -0.03034568      -0.07070829      -0.04642095      -0.28381931
Se      16.53633212      14.01953392      17.31792761      -0.01199572       0.03744425      -0.03075124      -0.30153154
