4
Lattice="21.19052623 0.0 0.0 0.0 21.24016811 0.0 0.0 0.0 21.26374739" Properties=species:S:1:pos:R:3 Generated=T TMD=T structure,=T Energy:=T 3.458282=T eV=T pbc="F F F"
Cr      10.00000000      10.39424437      11.26374739
Cu      11.00685459      11.24016811      10.76050020
Se      10.55193296      10.13919677      10.00000000
Se      11.19052623      10.00000000      11.16522154
