6
Generated TMD structure, Energy: -2.722448 eV
Te      -0.33228788      0.46905250     -0.62221183
Te       0.38752776      0.45698805      0.31860790
Te       0.06147263      0.46561573     -0.21020482
Te      -0.76948860     -0.15828565      0.31258254
Mo      -0.35684286      0.54503773      0.38329153
Mo      -0.12719507     -0.17953604     -0.47173629
