6
Lattice="21.15701636 0.0 0.0 0.0 20.72457377 0.0 0.0 0.0 21.00550336" Properties=species:S:1:pos:R:3 Generated=T TMD=T structure,=T Energy:=T -2.722448=T eV=T pbc="F F F"
Te      10.43720072      10.64858854      10.00000000
Te      11.15701636      10.63652409      10.94081973
Te      10.83096123      10.64515177      10.41200701
Te      10.00000000      10.02125039      10.93479437
Mo      10.41264574      10.72457377      11.00550336
Mo      10.64229353      10.00000000      10.15047554
