6
Lattice="31.15701636 0.0 0.0 0.0 30.72457377 0.0 0.0 0.0 31.00550336" Properties=species:S:1:pos:R:3:stresses:R:6:energies:R:1:forces:R:3 Generated=T TMD=T structure,=T Energy:=T -2.722448=T eV=T stress="1.2850125769050665e-05 -6.698181174573766e-07 8.690392010373184e-06 -6.698181174573766e-07 2.0742207776646697e-05 -6.851641265897932e-06 8.690392010373184e-06 -6.851641265897932e-06 4.4673445256693146e-05" energy=-12.62183321696357 free_energy=-12.62183321696357 pbc="F F F"
Te      15.23489677      15.35885135      14.85902910       0.00000284       0.00000111       0.00001932      -0.00000088       0.00000832       0.00000090      -2.09936315       0.30847395      -0.10684092       0.83050849
Te      15.92314040      15.53247895      16.28920278       0.00000120       0.00000054       0.00001876       0.00000003       0.00000723       0.00000110      -2.09942132      -0.18466051       0.04483488      -0.76594961
Te      16.23186821      15.09839178      15.30178275       0.00000995      -0.00000438       0.00000100       0.00000388      -0.00000456      -0.00000684      -2.10774919      -0.24835591      -0.00458800       0.13975167
Te      14.92976256      15.79655376      15.84505197       0.00000602      -0.00000039      -0.00000080       0.00000454      -0.00000360      -0.00000903      -2.10770537       0.05091340      -0.28246734      -0.05530758
Mo      15.86279539      16.14894663      15.34870756      -0.00000524       0.00000935       0.00000241      -0.00000668       0.00000147       0.00000699      -2.10314433       0.00743793      -0.20260234       0.21652225
Mo      15.29765426      14.74086609      15.79982585      -0.00000192       0.00001452       0.00000399      -0.00000773      -0.00000018       0.00000620      -2.10444986       0.06619113       0.55166373      -0.36552522
