4
Lattice="7.2615267249999995 0.0 0.0 0.0 9.396491939999997 0.0 0.0 0.0 33.19793573" Properties=species:S:1:pos:R:3:forces:R:3:charge:R:1 Generated=T TMD=T structure,=T Energy:=T 3.458282=T eV=T energy=-333.91837116842663 free_energy=-333.91837116842663 dipole="0.2910590912657545 1.8343133394629232 0.06524802034993424" pbc="T T F"
Cr       3.85961153       4.23655510      16.68030139       0.00606787       0.00554168       0.02908230       0.34512815
Cu       3.96543456       6.50930315      16.83126449       0.03627353       0.02772236       0.04808989       0.24022271
Se       2.64087984       3.61118168      15.00000000      -0.03034568      -0.07070829      -0.04642095      -0.28381931
Se       4.62064688       2.88718879      18.19793573      -0.01199572       0.03744425      -0.03075124      -0.30153154
