6
Lattice="6.160039193333334 0.0 0.0 0.0 5.89202952 0.0 0.0 0.0 31.00550336" Properties=species:S:1:pos:R:3 Generated=T TMD=T structure,=T Energy:=T -2.722448=T eV=T pbc="T T F"
Te       2.93871214       3.23231642      15.00000000
Te       3.65852778       3.22025197      15.94081973
Te       3.33247265       3.22887965      15.41200701
Te       2.50151142       2.60497827      15.93479437
Mo       2.91415716       3.30830165      16.00550336
Mo       3.14380495       2.58372788      15.15047554
