3
Lattice="6.48523636 0.0 0.0 0.0 6.350242293333333 0.0 0.0 0.0 30.746092140000002" Properties=species:S:1:pos:R:3 Generated=T TMD=T structure,=T Energy:=T -1.810158=T eV=T pbc="T T F"
V        2.56871945       2.96105773      15.74609214
Te       3.91651691       2.57135447      15.56840315
Te       3.44877653       3.77888782      15.00000000
