17
Generated by CMD-ECS (energy=151.29 eV)
C      -0.797303     -0.734872     -0.315880
C      -0.358408     -0.285246      0.349251
C      -0.382186     -1.797663      1.013911
C       0.849583     -2.381438      0.096621
C       1.235246      1.118110     -1.731231
C       0.097076      0.262247     -0.512856
C       0.258032     -0.375461     -0.169550
C      -0.110720     -1.097466      1.355620
O       0.615074     -0.971747      0.385492
H       1.095285      0.768677     -1.199728
H      -4.422802     -1.706806      2.322372
H       0.681887     -0.720095     -1.041853
H      -0.554530     -3.659066     -5.438860
H       3.430191     -6.242486     -5.522024
H      -0.523752     -1.556630      0.972908
H       1.471110      1.513486     -2.226518
H       0.154335     -1.338998     -0.251836
