14
Generated by CMD-ECS (energy=-128.40 eV)
C       2.657482     -2.149445      1.503203
C       2.379838      0.226275      1.258259
N       1.359282      1.037866      0.167790
C       3.083812     -0.925593      1.205768
N      -0.921352     -0.006345     -0.219803
C       1.144202      1.880713     -0.139700
C       2.172027      0.860681      0.421723
O       1.079858     -0.175542      0.596255
H       3.114977      0.076457      1.508885
H       0.707197      0.996543      0.107503
H       1.794534      1.127362      1.191942
H       0.862546      2.200363      0.219391
H       2.096217      0.910352      1.203209
H       1.933999     -0.711264      0.581712
