13
Generated by CMD-ECS (energy=-60.45 eV)
N       0.181162     -1.770682      0.085916
C      -0.025059     -1.274618      0.681557
C       0.302399     -2.474259      0.439847
C       0.324319     -2.233983     -0.567115
O       0.766987     -4.525168     -0.478518
C       1.177367     -4.357436     -0.075412
C       0.330239      0.787423      0.403744
C      -0.317953     -6.565307      0.698433
N      -1.013465      1.152776     -1.100177
H       0.137785     -1.345570     -1.449703
H      -0.685358      0.480743     -0.684284
H      -1.666309    -11.125252     -0.805343
H       0.318470     -1.388875     -0.323890
