15
Generated by CMD-ECS (energy=-188.28 eV)
O      -0.943326     -1.500566     -0.542027
C      -0.852803      1.035478      1.361450
C       1.400523      0.093721     -1.852099
C      -0.289628      0.453988      0.093322
O      -0.321280     -0.933705     -0.947321
C      -1.827345     -3.715885     -1.076397
O      -0.670701     -2.348250     -1.105227
C      -1.626509     -2.841202     -0.852191
C      -0.811774     -1.052177     -0.968520
H       2.231376     -3.474266     -5.391834
H       1.039685      0.775178     -0.567777
H      -0.686454     -7.849552     -0.520793
H      -1.654671     -1.854938     -0.351564
H       1.938032      2.015927     -0.792325
H      -3.330661     -2.035421      2.678430
