15
Generated by CMD-ECS (energy=-82.73 eV)
C       0.991282     -2.132979     -0.953715
C       0.135467      0.917260     -0.457425
N       0.704092     -1.106218     -1.063861
C      -0.467092     -0.623909      0.690254
N       1.144604     -1.160121     -2.136023
C       1.072506     -3.572613     -1.706779
O       1.561754     -2.835857     -2.757648
H       1.229827      0.789462     -0.327417
H       0.818776     -0.608318     -0.504530
H       0.530548     -1.816446     -2.329153
H      -1.789982      7.710975      3.054830
H       0.392401      0.655900     -0.585555
H       0.034445      2.168873      0.241719
H      -0.151537      1.367755     -1.054643
H       0.448574     -1.736553     -1.282156
