19
Generated by CMD-ECS (energy=67.52 eV)
O      -1.504524     -0.723899      1.005566
C      -0.369940     -0.279833      0.101126
C       0.043789     -2.781079      1.271196
C       0.303480     -1.281586      0.206544
O       0.814334     -0.524543      1.583864
C      -1.854435     -1.267727      1.741732
C      -0.637097     -0.516039      1.011980
C      -0.639756     -1.142173      0.772171
C      -3.050024      0.259300      0.027614
H      -0.576352     -0.494128      1.574110
H      -0.750036     -1.469243      1.113331
H      -0.245481     -0.930010      1.347889
H       4.148112      7.709884     -2.982248
H       1.344136      1.720342     -1.167080
H      -0.582817     -0.628072     -0.013190
H      -1.173933     -0.335991      1.176570
H       1.137341     -9.334309      3.138083
H      -0.168957     -1.690249      0.519946
H      -0.719721     -2.924825      2.273961
