16
Generated by CMD-ECS (energy=-3.24 eV)
C      -0.461999     -2.093066     -0.588805
C      -1.317207     -1.163942     -0.673468
C      -1.890516     -5.589267     -0.436042
C       0.213965     -4.872243      0.311475
C      -0.703033     -1.549232      0.813435
O       0.767551      1.030115      0.050727
C       0.052447     -4.466445     -0.228238
C      -0.946946     -4.077496     -0.130010
N      -0.850204     -2.548199     -0.232716
H       0.698842     -4.555840      0.174290
H      -0.579808     -3.399396      0.647762
H       1.242085    -16.550240     -0.327267
H      -0.471761     -8.538248     -2.060766
H      -1.639236     -1.923286      1.614019
H      -2.098129     -1.218007     -1.062489
H       0.506899     -3.781361     -0.397601
