13
Generated by CMD-ECS (energy=12.25 eV)
O      -0.167146     -0.330798      1.604689
C       3.116761     -0.563503     -0.220259
C       1.043716     -0.580300      1.025153
N       0.412109      0.174306      0.853590
C       0.814500     -0.218450      0.785865
C       1.161403     -0.356549      2.099371
N      -0.473297      0.312290     -1.410132
N       1.922473     -0.430187      0.471862
N       0.780523     -1.380151      3.269459
H       3.998418     -0.746151      3.277026
H      -1.226094      4.842840    -11.559473
H       0.643230      0.258284      0.421472
H       1.381616     -0.456176      2.602662
