18
Generated by CMD-ECS (energy=-58.64 eV)
C       3.061760     -2.097132      0.621913
C       0.275103      0.734212     -0.589198
O       2.004947     -1.295083      0.075927
C       1.594424     -0.068671      0.840820
C       2.126797     -1.770356      0.327817
O       0.727272     -0.611548      0.354752
C       1.434652     -1.462770      0.863432
C       1.111910      0.248397     -0.145865
H      -1.149594      2.893161     -1.018488
H      -5.514747      4.220876     -0.050747
H       2.453037     -2.110556      0.902477
H       2.685788     -2.339397      0.324668
H      -0.451375      0.433440     -1.336330
H       0.870507     -1.788425     -1.497451
H       1.923590     -2.339015     -1.775660
H       5.740410    -10.387341     -3.915711
H      -2.311094     -2.175001     -0.628727
H       0.663567      0.212877     -0.304892
