17
Generated by CMD-ECS (energy=-117.82 eV)
C       0.451478     -0.216333     -0.029964
N       0.261788      0.052775      0.145376
C      -1.834999     -3.884521     -0.328954
O      -2.474784     -1.941868     -0.020580
C      -0.996411     -0.610486      0.011399
C      -1.562954     -1.300533     -0.186585
C      -1.198594     -1.141066     -0.567305
N      -2.380287      0.380082      0.151437
O      -0.285579     -0.772064     -0.068191
H      -0.319125     -1.392295      0.880739
H       5.236084     -8.416277      0.668383
H      -2.561572     -1.894541      0.711677
H       0.198651      0.586715     -0.059875
H      -7.724920     -0.963860     -0.453591
H       3.494682     -5.126791      0.747455
H      -0.562415     -7.300617     -0.008054
H       2.352708     -1.404000      0.463402
